# vtk DataFile Version 2.0                                                                                                                                                                                                                                      
Created by Vtk-utils
ASCII
DATASET POLYDATA
POINTS          5 float
     1050.000       0.000000       0.000000    
     1050.000       2000.000       0.000000    
     1050.000       2000.000      -1000.000    
     1050.000       0.000000      -1000.000    
     1050.000       0.000000       0.000000    
  
LINES          1         6
   5 0 1 2 3 4
POINT_DATA          5
SCALARS LINE float 1
LOOKUP_TABLE LINE
   0.000000    
  0.2000000    
  0.4000000    
  0.6000000    
  0.8000000    
LOOKUP_TABLE LINE          5
 1.0000 1.0000 1.0000 1
 1.0000 1.0000 1.0000 1
 1.0000 1.0000 1.0000 1
 1.0000 1.0000 1.0000 1
 1.0000 1.0000 1.0000 1
