# vtk DataFile Version 2.0                                                                                                                                                                                                                                      
Created by Vtk-utils
ASCII
DATASET POLYDATA
POINTS         10 float
     1050.000       700.0000      -100.0000    
     1050.000       750.0000      -100.0000    
     1050.000       750.0000      -150.0000    
     1050.000       700.0000      -150.0000    
     1050.000       700.0000      -100.0000    
     1050.000       1200.000      -100.0000    
     1050.000       1250.000      -100.0000    
     1050.000       1250.000      -150.0000    
     1050.000       1200.000      -150.0000    
     1050.000       1200.000      -100.0000    
  
LINES          2        12
   5 0 1 2 3 4
   5 5 6 7 8 9
POINT_DATA         10
SCALARS LINE float 1
LOOKUP_TABLE LINE
   0.000000    
  0.1000000    
  0.2000000    
  0.3000000    
  0.4000000    
  0.5000000    
  0.6000000    
  0.7000000    
  0.8000000    
  0.9000000    
LOOKUP_TABLE LINE         10
 1.0000 1.0000 1.0000 1
 1.0000 1.0000 1.0000 1
 1.0000 1.0000 1.0000 1
 1.0000 1.0000 1.0000 1
 1.0000 1.0000 1.0000 1
 1.0000 1.0000 1.0000 1
 1.0000 1.0000 1.0000 1
 1.0000 1.0000 1.0000 1
 1.0000 1.0000 1.0000 1
 1.0000 1.0000 1.0000 1
